SillyRrouting
M 0.0 nn 4 x 3000 y 3000 z 1500
M 0.0 prop Propagation/UnderwaterPropagation ant Antenna/OmniAntenna
s 0.001025000 _0_ MAC  --- 0 tcp 30 [0 0 0 0] [energy 100000.000000 ei 0.000 es 0.000 et 0.000 er 0.000] ------- [0:0 0:0 0 0] [0 0] 0 0
N -t 1.000000 -n 0 -e 99999.974410
N -t 1.000000 -n 1 -e 99999.980770
N -t 1.000000 -n 2 -e 99999.980770
N -t 1.000000 -n 3 -e 99999.980770
s 1.719076800 _0_ MAC  --- 0 tcp 30 [0 0 0 0] [energy 99999.974410 ei 0.010 es 0.000 et 0.016 er 0.000] ------- [0:0 0:0 0 0] [0 0] 0 0
s 1.719076800 _1_ MAC  --- 0 tcp 10 [0 0 0 0] [energy 99999.980770 ei 0.010 es 0.000 et 0.000 er 0.009] ------- [0:0 0:0 0 0] [0 0] 0 0
s 1.719076800 _2_ MAC  --- 0 tcp 10 [0 0 0 0] [energy 99999.980770 ei 0.010 es 0.000 et 0.000 er 0.009] ------- [0:0 0:0 0 0] [0 0] 0 0
s 1.719076800 _3_ MAC  --- 0 tcp 10 [0 0 0 0] [energy 99999.980770 ei 0.010 es 0.000 et 0.000 er 0.009] ------- [0:0 0:0 0 0] [0 0] 0 0
s 1.727076800 _1_ MAC  --- 0 tcp 10 [0 0 0 0] [energy 99999.968299 ei 0.017 es 0.000 et 0.005 er 0.009] ------- [0:0 0:0 0 0] [0 0] 0 0
s 1.727076800 _2_ MAC  --- 0 tcp 10 [0 0 0 0] [energy 99999.968299 ei 0.017 es 0.000 et 0.005 er 0.009] ------- [0:0 0:0 0 0] [0 0] 0 0
s 1.727076800 _3_ MAC  --- 0 tcp 10 [0 0 0 0] [energy 99999.968299 ei 0.017 es 0.000 et 0.005 er 0.009] ------- [0:0 0:0 0 0] [0 0] 0 0
N -t 2.000000 -n 0 -e 99999.933410
N -t 2.000000 -n 1 -e 99999.938810
N -t 2.000000 -n 2 -e 99999.944970
N -t 2.000000 -n 3 -e 99999.942252
N -t 3.000000 -n 0 -e 99999.923410
N -t 3.000000 -n 1 -e 99999.928810
N -t 3.000000 -n 2 -e 99999.934970
N -t 3.000000 -n 3 -e 99999.932252
s 3.437128600 _0_ MAC  --- 0 tcp 30 [0 0 0 0] [energy 99999.923410 ei 0.029 es 0.000 et 0.032 er 0.016] ------- [0:0 0:0 0 0] [0 0] 0 0
s 3.437128600 _1_ MAC  --- 0 tcp 10 [0 0 0 0] [energy 99999.928810 ei 0.029 es 0.000 et 0.011 er 0.032] ------- [0:0 0:0 0 0] [0 0] 0 0
s 3.437128600 _2_ MAC  --- 0 tcp 10 [0 0 0 0] [energy 99999.934970 ei 0.029 es 0.000 et 0.011 er 0.025] ------- [0:0 0:0 0 0] [0 0] 0 0
s 3.437128600 _3_ MAC  --- 0 tcp 10 [0 0 0 0] [energy 99999.932252 ei 0.029 es 0.000 et 0.011 er 0.028] ------- [0:0 0:0 0 0] [0 0] 0 0
s 3.445128600 _1_ MAC  --- 0 tcp 10 [0 0 0 0] [energy 99999.919159 ei 0.033 es 0.000 et 0.016 er 0.032] ------- [0:0 0:0 0 0] [0 0] 0 0
s 3.445128600 _2_ MAC  --- 0 tcp 10 [0 0 0 0] [energy 99999.925319 ei 0.034 es 0.000 et 0.016 er 0.025] ------- [0:0 0:0 0 0] [0 0] 0 0
s 3.445128600 _3_ MAC  --- 0 tcp 10 [0 0 0 0] [energy 99999.922601 ei 0.033 es 0.000 et 0.016 er 0.028] ------- [0:0 0:0 0 0] [0 0] 0 0
N -t 4.000000 -n 0 -e 99999.882410
N -t 4.000000 -n 1 -e 99999.886850
N -t 4.000000 -n 2 -e 99999.899170
N -t 4.000000 -n 3 -e 99999.893734
N -t 5.000000 -n 0 -e 99999.872410
N -t 5.000000 -n 1 -e 99999.876850
N -t 5.000000 -n 2 -e 99999.889170
N -t 5.000000 -n 3 -e 99999.883734
s 5.155180400 _0_ MAC  --- 0 tcp 30 [0 0 0 0] [energy 99999.872410 ei 0.048 es 0.000 et 0.048 er 0.032] ------- [0:0 0:0 0 0] [0 0] 0 0
s 5.155180400 _1_ MAC  --- 0 tcp 10 [0 0 0 0] [energy 99999.876850 ei 0.048 es 0.000 et 0.021 er 0.054] ------- [0:0 0:0 0 0] [0 0] 0 0
s 5.155180400 _2_ MAC  --- 0 tcp 10 [0 0 0 0] [energy 99999.889170 ei 0.049 es 0.000 et 0.021 er 0.041] ------- [0:0 0:0 0 0] [0 0] 0 0
s 5.155180400 _3_ MAC  --- 0 tcp 10 [0 0 0 0] [energy 99999.883734 ei 0.048 es 0.000 et 0.021 er 0.047] ------- [0:0 0:0 0 0] [0 0] 0 0
s 5.163180400 _1_ MAC  --- 0 tcp 10 [0 0 0 0] [energy 99999.870018 ei 0.050 es 0.000 et 0.026 er 0.054] ------- [0:0 0:0 0 0] [0 0] 0 0
s 5.163180400 _2_ MAC  --- 0 tcp 10 [0 0 0 0] [energy 99999.882338 ei 0.050 es 0.000 et 0.026 er 0.041] ------- [0:0 0:0 0 0] [0 0] 0 0
s 5.163180400 _3_ MAC  --- 0 tcp 10 [0 0 0 0] [energy 99999.876902 ei 0.050 es 0.000 et 0.026 er 0.047] ------- [0:0 0:0 0 0] [0 0] 0 0
N -t 6.000000 -n 0 -e 99999.831410
N -t 6.000000 -n 1 -e 99999.834890
N -t 6.000000 -n 2 -e 99999.853370
N -t 6.000000 -n 3 -e 99999.845215
s 6.355180400 _1_ MAC  --- 0 vectorbasedforward 500 [0 1000000 ffff0008 0] [energy 99999.834890 ei 0.058 es 0.000 et 0.032 er 0.076] ------- [1:0 1:255 0 0] 
s 6.458780400 _3_ MAC  --- 2 vectorbasedforward 500 [0 3000000 ffff0008 0] [energy 99999.845215 ei 0.058 es 0.000 et 0.032 er 0.065] ------- [3:0 3:255 0 0] 
s 6.873232200 _0_ MAC  --- 0 tcp 30 [0 0 0 0] [energy 99999.599395 ei 0.062 es 0.000 et 0.063 er 0.276] ------- [0:0 0:0 0 0] [0 0] 0 0
s 6.873232200 _1_ MAC  --- 0 tcp 10 [0 0 0 0] [energy 99999.567338 ei 0.061 es 0.000 et 0.296 er 0.076] ------- [0:0 0:0 0 0] [0 0] 0 0
s 6.873232200 _2_ MAC  --- 0 tcp 10 [0 0 0 0] [energy 99999.618810 ei 0.062 es 0.000 et 0.032 er 0.287] ------- [0:0 0:0 0 0] [0 0] 0 0
s 6.873232200 _3_ MAC  --- 0 tcp 10 [0 0 0 0] [energy 99999.576628 ei 0.062 es 0.000 et 0.296 er 0.065] ------- [0:0 0:0 0 0] [0 0] 0 0
s 6.881232200 _1_ MAC  --- 0 tcp 10 [0 0 0 0] [energy 99999.560878 ei 0.062 es 0.000 et 0.301 er 0.076] ------- [0:0 0:0 0 0] [0 0] 0 0
s 6.881232200 _2_ MAC  --- 0 tcp 10 [0 0 0 0] [energy 99999.613530 ei 0.062 es 0.000 et 0.037 er 0.287] ------- [0:0 0:0 0 0] [0 0] 0 0
s 6.881232200 _3_ MAC  --- 0 tcp 10 [0 0 0 0] [energy 99999.571203 ei 0.063 es 0.000 et 0.301 er 0.065] ------- [0:0 0:0 0 0] [0 0] 0 0
N -t 7.000000 -n 0 -e 99999.567128
N -t 7.000000 -n 1 -e 99999.532930
N -t 7.000000 -n 2 -e 99999.597902
N -t 7.000000 -n 3 -e 99999.552857
N -t 8.000000 -n 0 -e 99999.557128
N -t 8.000000 -n 1 -e 99999.522930
N -t 8.000000 -n 2 -e 99999.581742
N -t 8.000000 -n 3 -e 99999.536697
s 8.073232200 _1_ MAC  --- 2 vectorbasedforward 500 [0 3000000 ffff0008 0] [energy 99999.522930 ei 0.073 es 0.000 et 0.306 er 0.098] ------- [3:0 3:255 0 0] 
s 8.280432200 _3_ MAC  --- 2 vectorbasedforward 500 [0 3000000 ffff0008 0] [energy 99999.376871 ei 0.075 es 0.000 et 0.306 er 0.242] ------- [3:0 3:255 0 0] 
s 8.591284000 _0_ MAC  --- 0 tcp 30 [0 0 0 0] [energy 99999.287011 ei 0.073 es 0.000 et 0.079 er 0.561] ------- [0:0 0:0 0 0] [0 0] 0 0
s 8.591284000 _1_ MAC  --- 0 tcp 10 [0 0 0 0] [energy 99999.258198 ei 0.074 es 0.000 et 0.570 er 0.098] ------- [0:0 0:0 0 0] [0 0] 0 0
s 8.591284000 _2_ MAC  --- 0 tcp 10 [0 0 0 0] [energy 99999.309080 ei 0.074 es 0.000 et 0.042 er 0.574] ------- [0:0 0:0 0 0] [0 0] 0 0
s 8.599284000 _1_ MAC  --- 0 tcp 10 [0 0 0 0] [energy 99999.251737 ei 0.075 es 0.000 et 0.576 er 0.098] ------- [0:0 0:0 0 0] [0 0] 0 0
s 8.599284000 _2_ MAC  --- 0 tcp 10 [0 0 0 0] [energy 99999.303800 ei 0.074 es 0.000 et 0.048 er 0.574] ------- [0:0 0:0 0 0] [0 0] 0 0
N -t 9.000000 -n 0 -e 99999.258083
N -t 9.000000 -n 1 -e 99999.227130
N -t 9.000000 -n 2 -e 99999.285353
N -t 9.000000 -n 3 -e 99999.091557
s 9.791284000 _1_ MAC  --- 2 vectorbasedforward 500 [0 3000000 ffff0008 0] [energy 99999.227130 ei 0.078 es 0.000 et 0.581 er 0.114] ------- [3:0 3:255 0 0] 
N -t 10.000000 -n 0 -e 99999.091971
N -t 10.000000 -n 1 -e 99998.955217
N -t 10.000000 -n 2 -e 99999.118744
N -t 10.000000 -n 3 -e 99998.924551
s 10.102084000 _3_ MAC  --- 0 tcp 500 [0 0 0 0] [energy 99998.924551 ei 0.087 es 0.000 et 0.570 er 0.418] ------- [0:0 0:0 0 0] [0 0] 0 0
s 10.309335800 _0_ MAC  --- 0 tcp 30 [0 0 0 0] [energy 99998.939864 ei 0.085 es 0.000 et 0.095 er 0.880] ------- [0:0 0:0 0 0] [0 0] 0 0
s 10.309335800 _1_ MAC  --- 0 tcp 10 [0 0 0 0] [energy 99998.797016 ei 0.086 es 0.000 et 0.845 er 0.272] ------- [0:0 0:0 0 0] [0 0] 0 0
s 10.309335800 _2_ MAC  --- 0 tcp 10 [0 0 0 0] [energy 99998.964587 ei 0.087 es 0.000 et 0.053 er 0.896] ------- [0:0 0:0 0 0] [0 0] 0 0
s 10.317335800 _1_ MAC  --- 0 tcp 10 [0 0 0 0] [energy 99998.791736 ei 0.086 es 0.000 et 0.850 er 0.272] ------- [0:0 0:0 0 0] [0 0] 0 0
s 10.317335800 _2_ MAC  --- 0 tcp 10 [0 0 0 0] [energy 99998.959307 ei 0.087 es 0.000 et 0.058 er 0.896] ------- [0:0 0:0 0 0] [0 0] 0 0
N -t 11.000000 -n 0 -e 99998.908117
N -t 11.000000 -n 1 -e 99998.764309
N -t 11.000000 -n 2 -e 99998.938041
N -t 11.000000 -n 3 -e 99998.655572
s 11.509335800 _1_ MAC  --- 0 tcp 500 [0 0 0 0] [energy 99998.764309 ei 0.093 es 0.000 et 0.855 er 0.288] ------- [0:0 0:0 0 0] [0 0] 0 0
N -t 12.000000 -n 0 -e 99998.744117
N -t 12.000000 -n 1 -e 99998.494309
N -t 12.000000 -n 2 -e 99998.774041
N -t 12.000000 -n 3 -e 99998.491385
s 12.027387600 _0_ MAC  --- 0 tcp 30 [0 0 0 0] [energy 99998.744117 ei 0.097 es 0.000 et 0.111 er 1.048] ------- [0:0 0:0 0 0] [0 0] 0 0
s 12.027387600 _1_ MAC  --- 0 tcp 10 [0 0 0 0] [energy 99998.494309 ei 0.099 es 0.000 et 1.119 er 0.288] ------- [0:0 0:0 0 0] [0 0] 0 0
s 12.027387600 _2_ MAC  --- 0 tcp 10 [0 0 0 0] [energy 99998.774041 ei 0.099 es 0.000 et 0.063 er 1.063] ------- [0:0 0:0 0 0] [0 0] 0 0
s 12.035387600 _1_ MAC  --- 0 tcp 10 [0 0 0 0] [energy 99998.488755 ei 0.099 es 0.000 et 1.125 er 0.288] ------- [0:0 0:0 0 0] [0 0] 0 0
s 12.035387600 _2_ MAC  --- 0 tcp 10 [0 0 0 0] [energy 99998.768487 ei 0.100 es 0.000 et 0.069 er 1.063] ------- [0:0 0:0 0 0] [0 0] 0 0
N -t 13.000000 -n 0 -e 99998.709277
N -t 13.000000 -n 1 -e 99998.458509
N -t 13.000000 -n 2 -e 99998.744401
N -t 13.000000 -n 3 -e 99998.463454
s 13.227387600 _1_ MAC  --- 0 tcp 500 [0 0 0 0] [energy 99998.458509 ei 0.108 es 0.000 et 1.130 er 0.303] ------- [0:0 0:0 0 0] [0 0] 0 0
s 13.745439400 _0_ MAC  --- 0 tcp 30 [0 0 0 0] [energy 99998.704967 ei 0.111 es 0.000 et 0.127 er 1.057] ------- [0:0 0:0 0 0] [0 0] 0 0
s 13.745439400 _1_ MAC  --- 0 tcp 10 [0 0 0 0] [energy 99998.192235 ei 0.110 es 0.000 et 1.394 er 0.303] ------- [0:0 0:0 0 0] [0 0] 0 0
s 13.745439400 _2_ MAC  --- 0 tcp 10 [0 0 0 0] [energy 99998.583431 ei 0.112 es 0.000 et 0.074 er 1.231] ------- [0:0 0:0 0 0] [0 0] 0 0
s 13.745439400 _3_ MAC  --- 0 tcp 10 [0 0 0 0] [energy 99998.463454 ei 0.107 es 0.000 et 0.834 er 0.595] ------- [0:0 0:0 0 0] [0 0] 0 0
s 13.753439400 _1_ MAC  --- 0 tcp 10 [0 0 0 0] [energy 99998.185775 ei 0.112 es 0.000 et 1.399 er 0.303] ------- [0:0 0:0 0 0] [0 0] 0 0
s 13.753439400 _2_ MAC  --- 0 tcp 10 [0 0 0 0] [energy 99998.577666 ei 0.112 es 0.000 et 0.079 er 1.231] ------- [0:0 0:0 0 0] [0 0] 0 0
s 13.753439400 _3_ MAC  --- 0 tcp 10 [0 0 0 0] [energy 99998.450719 ei 0.115 es 0.000 et 0.840 er 0.595] ------- [0:0 0:0 0 0] [0 0] 0 0
N -t 14.000000 -n 0 -e 99998.668277
N -t 14.000000 -n 1 -e 99998.156549
N -t 14.000000 -n 2 -e 99998.554601
N -t 14.000000 -n 3 -e 99998.424935
s 14.945439400 _1_ MAC  --- 0 tcp 500 [0 0 0 0] [energy 99998.156549 ei 0.113 es 0.000 et 1.404 er 0.325] ------- [0:0 0:0 0 0] [0 0] 0 0
N -t 15.000000 -n 0 -e 99998.500623
N -t 15.000000 -n 1 -e 99997.883095
N -t 15.000000 -n 2 -e 99998.544601
N -t 15.000000 -n 3 -e 99998.414935
s 15.359839400 _3_ MAC  --- 0 tcp 500 [0 0 0 0] [energy 99998.256387 ei 0.127 es 0.000 et 0.845 er 0.772] ------- [0:0 0:0 0 0] [0 0] 0 0
s 15.463491200 _0_ MAC  --- 0 tcp 30 [0 0 0 0] [energy 99998.341736 ei 0.127 es 0.000 et 0.143 er 1.389] ------- [0:0 0:0 0 0] [0 0] 0 0
s 15.463491200 _1_ MAC  --- 0 tcp 10 [0 0 0 0] [energy 99997.883095 ei 0.123 es 0.000 et 1.668 er 0.325] ------- [0:0 0:0 0 0] [0 0] 0 0
s 15.463491200 _2_ MAC  --- 0 tcp 10 [0 0 0 0] [energy 99998.386450 ei 0.124 es 0.000 et 0.084 er 1.405] ------- [0:0 0:0 0 0] [0 0] 0 0
s 15.471491200 _1_ MAC  --- 0 tcp 10 [0 0 0 0] [energy 99997.876634 ei 0.124 es 0.000 et 1.674 er 0.325] ------- [0:0 0:0 0 0] [0 0] 0 0
s 15.471491200 _2_ MAC  --- 0 tcp 10 [0 0 0 0] [energy 99998.380686 ei 0.125 es 0.000 et 0.090 er 1.405] ------- [0:0 0:0 0 0] [0 0] 0 0
N -t 16.000000 -n 0 -e 99998.311531
N -t 16.000000 -n 1 -e 99997.850749
N -t 16.000000 -n 2 -e 99998.216201
N -t 16.000000 -n 3 -e 99997.989986
s 16.663491200 _1_ MAC  --- 0 tcp 500 [0 0 0 0] [energy 99997.850749 ei 0.129 es 0.000 et 1.679 er 0.341] ------- [0:0 0:0 0 0] [0 0] 0 0
N -t 17.000000 -n 0 -e 99998.146696
N -t 17.000000 -n 1 -e 99997.580114
N -t 17.000000 -n 2 -e 99998.050870
N -t 17.000000 -n 3 -e 99997.824257
s 17.181543000 _0_ MAC  --- 0 tcp 30 [0 0 0 0] [energy 99998.146696 ei 0.138 es 0.000 et 0.158 er 1.556] ------- [0:0 0:0 0 0] [0 0] 0 0
s 17.181543000 _1_ MAC  --- 0 tcp 10 [0 0 0 0] [energy 99997.580114 ei 0.136 es 0.000 et 1.943 er 0.341] ------- [0:0 0:0 0 0] [0 0] 0 0
s 17.181543000 _2_ MAC  --- 0 tcp 10 [0 0 0 0] [energy 99998.050870 ei 0.133 es 0.000 et 0.095 er 1.721] ------- [0:0 0:0 0 0] [0 0] 0 0
s 17.189543000 _1_ MAC  --- 0 tcp 10 [0 0 0 0] [energy 99997.573654 ei 0.137 es 0.000 et 1.948 er 0.341] ------- [0:0 0:0 0 0] [0 0] 0 0
s 17.189543000 _2_ MAC  --- 0 tcp 10 [0 0 0 0] [energy 99998.045105 ei 0.134 es 0.000 et 0.100 er 1.721] ------- [0:0 0:0 0 0] [0 0] 0 0
N -t 18.000000 -n 0 -e 99998.112691
N -t 18.000000 -n 1 -e 99997.544949
N -t 18.000000 -n 2 -e 99998.022561
N -t 18.000000 -n 3 -e 99997.797867
s 18.381543000 _1_ MAC  --- 0 tcp 500 [0 0 0 0] [energy 99997.544949 ei 0.144 es 0.000 et 1.954 er 0.357] ------- [0:0 0:0 0 0] [0 0] 0 0
s 18.899594800 _0_ MAC  --- 0 tcp 30 [0 0 0 0] [energy 99998.106839 ei 0.153 es 0.000 et 0.174 er 1.566] ------- [0:0 0:0 0 0] [0 0] 0 0
s 18.899594800 _1_ MAC  --- 0 tcp 10 [0 0 0 0] [energy 99997.277134 ei 0.148 es 0.000 et 2.218 er 0.357] ------- [0:0 0:0 0 0] [0 0] 0 0
s 18.899594800 _2_ MAC  --- 0 tcp 10 [0 0 0 0] [energy 99997.860049 ei 0.146 es 0.000 et 0.106 er 1.888] ------- [0:0 0:0 0 0] [0 0] 0 0
s 18.907594800 _1_ MAC  --- 0 tcp 10 [0 0 0 0] [energy 99997.270673 ei 0.149 es 0.000 et 2.223 er 0.357] ------- [0:0 0:0 0 0] [0 0] 0 0
s 18.907594800 _2_ MAC  --- 0 tcp 10 [0 0 0 0] [energy 99997.854285 ei 0.147 es 0.000 et 0.111 er 1.888] ------- [0:0 0:0 0 0] [0 0] 0 0
N -t 19.000000 -n 0 -e 99998.077851
N -t 19.000000 -n 1 -e 99997.249149
N -t 19.000000 -n 2 -e 99997.838921
N -t 19.000000 -n 3 -e 99997.778449
N -t 20.000000 -n 0 -e 99998.067851
N -t 20.000000 -n 1 -e 99997.239149
N -t 20.000000 -n 2 -e 99997.828921
N -t 20.000000 -n 3 -e 99997.759749
s 20.099594800 _1_ MAC  --- 0 tcp 500 [0 0 0 0] [energy 99997.239149 ei 0.160 es 0.000 et 2.228 er 0.373] ------- [0:0 0:0 0 0] [0 0] 0 0
s 20.617646600 _0_ MAC  --- 0 tcp 30 [0 0 0 0] [energy 99997.908655 ei 0.168 es 0.000 et 0.190 er 1.733] ------- [0:0 0:0 0 0] [0 0] 0 0
s 20.617646600 _1_ MAC  --- 0 tcp 10 [0 0 0 0] [energy 99996.974153 ei 0.161 es 0.000 et 2.492 er 0.373] ------- [0:0 0:0 0 0] [0 0] 0 0
s 20.617646600 _2_ MAC  --- 0 tcp 10 [0 0 0 0] [energy 99997.669229 ei 0.159 es 0.000 et 0.116 er 2.056] ------- [0:0 0:0 0 0] [0 0] 0 0
s 20.617646600 _3_ MAC  --- 0 tcp 10 [0 0 0 0] [energy 99997.599660 ei 0.167 es 0.000 et 1.109 er 1.125] ------- [0:0 0:0 0 0] [0 0] 0 0
s 20.625646600 _1_ MAC  --- 0 tcp 10 [0 0 0 0] [energy 99996.967693 ei 0.162 es 0.000 et 2.497 er 0.373] ------- [0:0 0:0 0 0] [0 0] 0 0
s 20.625646600 _2_ MAC  --- 0 tcp 10 [0 0 0 0] [energy 99997.663464 ei 0.160 es 0.000 et 0.121 er 2.056] ------- [0:0 0:0 0 0] [0 0] 0 0
s 20.625646600 _3_ MAC  --- 0 tcp 10 [0 0 0 0] [energy 99997.594293 ei 0.167 es 0.000 et 1.114 er 1.125] ------- [0:0 0:0 0 0] [0 0] 0 0
N -t 21.000000 -n 0 -e 99997.872851
N -t 21.000000 -n 1 -e 99996.937189
N -t 21.000000 -n 2 -e 99997.639121
N -t 21.000000 -n 3 -e 99997.567231
s 21.817646600 _1_ MAC  --- 0 tcp 500 [0 0 0 0] [energy 99996.937189 ei 0.165 es 0.000 et 2.503 er 0.395] ------- [0:0 0:0 0 0] [0 0] 0 0
N -t 22.000000 -n 0 -e 99997.862851
N -t 22.000000 -n 1 -e 99996.665013
N -t 22.000000 -n 2 -e 99997.472248
N -t 22.000000 -n 3 -e 99997.557231
s 22.335698400 _0_ MAC  --- 0 tcp 30 [0 0 0 0] [energy 99997.862638 ei 0.182 es 0.000 et 0.206 er 1.749] ------- [0:0 0:0 0 0] [0 0] 0 0
s 22.335698400 _1_ MAC  --- 0 tcp 10 [0 0 0 0] [energy 99996.665013 ei 0.173 es 0.000 et 2.767 er 0.395] ------- [0:0 0:0 0 0] [0 0] 0 0
s 22.335698400 _2_ MAC  --- 0 tcp 10 [0 0 0 0] [energy 99997.472248 ei 0.172 es 0.000 et 0.127 er 2.229] ------- [0:0 0:0 0 0] [0 0] 0 0
s 22.335698400 _3_ MAC  --- 0 tcp 10 [0 0 0 0] [energy 99997.557231 ei 0.180 es 0.000 et 1.119 er 1.143] ------- [0:0 0:0 0 0] [0 0] 0 0
s 22.343698400 _1_ MAC  --- 0 tcp 10 [0 0 0 0] [energy 99996.658552 ei 0.174 es 0.000 et 2.772 er 0.395] ------- [0:0 0:0 0 0] [0 0] 0 0
s 22.343698400 _2_ MAC  --- 0 tcp 10 [0 0 0 0] [energy 99997.466484 ei 0.172 es 0.000 et 0.132 er 2.229] ------- [0:0 0:0 0 0] [0 0] 0 0
s 22.343698400 _3_ MAC  --- 0 tcp 10 [0 0 0 0] [energy 99997.548594 ei 0.183 es 0.000 et 1.125 er 1.143] ------- [0:0 0:0 0 0] [0 0] 0 0
N -t 23.000000 -n 0 -e 99997.821851
N -t 23.000000 -n 1 -e 99996.625229
N -t 23.000000 -n 2 -e 99997.439321
N -t 23.000000 -n 3 -e 99997.518713
s 23.535698400 _1_ MAC  --- 0 tcp 500 [0 0 0 0] [energy 99996.625229 ei 0.180 es 0.000 et 2.777 er 0.417] ------- [0:0 0:0 0 0] [0 0] 0 0
N -t 24.000000 -n 0 -e 99997.657851
N -t 24.000000 -n 1 -e 99996.355229
N -t 24.000000 -n 2 -e 99997.275268
N -t 24.000000 -n 3 -e 99997.354262
s 24.053750200 _0_ MAC  --- 0 tcp 30 [0 0 0 0] [energy 99997.657851 ei 0.197 es 0.000 et 0.222 er 1.923] ------- [0:0 0:0 0 0] [0 0] 0 0
s 24.053750200 _1_ MAC  --- 0 tcp 10 [0 0 0 0] [energy 99996.355229 ei 0.186 es 0.000 et 3.041 er 0.417] ------- [0:0 0:0 0 0] [0 0] 0 0
s 24.053750200 _2_ MAC  --- 0 tcp 10 [0 0 0 0] [energy 99997.275268 ei 0.184 es 0.000 et 0.137 er 2.403] ------- [0:0 0:0 0 0] [0 0] 0 0
s 24.053750200 _3_ MAC  --- 0 tcp 10 [0 0 0 0] [energy 99997.354262 ei 0.196 es 0.000 et 1.130 er 1.320] ------- [0:0 0:0 0 0] [0 0] 0 0
s 24.061750200 _1_ MAC  --- 0 tcp 10 [0 0 0 0] [energy 99996.349412 ei 0.187 es 0.000 et 3.047 er 0.417] ------- [0:0 0:0 0 0] [0 0] 0 0
s 24.061750200 _2_ MAC  --- 0 tcp 10 [0 0 0 0] [energy 99997.269503 ei 0.185 es 0.000 et 0.143 er 2.403] ------- [0:0 0:0 0 0] [0 0] 0 0
s 24.061750200 _3_ MAC  --- 0 tcp 10 [0 0 0 0] [energy 99997.348895 ei 0.196 es 0.000 et 1.135 er 1.320] ------- [0:0 0:0 0 0] [0 0] 0 0
N -t 25.000000 -n 0 -e 99997.616851
N -t 25.000000 -n 1 -e 99996.313269
N -t 25.000000 -n 2 -e 99997.239521
N -t 25.000000 -n 3 -e 99997.316194
s 25.253750200 _1_ MAC  --- 0 tcp 500 [0 0 0 0] [energy 99996.313269 ei 0.196 es 0.000 et 3.052 er 0.439] ------- [0:0 0:0 0 0] [0 0] 0 0
s 25.771802000 _0_ MAC  --- 0 tcp 30 [0 0 0 0] [energy 99997.612277 ei 0.211 es 0.000 et 0.238 er 1.939] ------- [0:0 0:0 0 0] [0 0] 0 0
s 25.771802000 _1_ MAC  --- 0 tcp 10 [0 0 0 0] [energy 99996.046732 ei 0.198 es 0.000 et 3.316 er 0.439] ------- [0:0 0:0 0 0] [0 0] 0 0
s 25.771802000 _2_ MAC  --- 0 tcp 10 [0 0 0 0] [energy 99997.078287 ei 0.197 es 0.000 et 0.148 er 2.577] ------- [0:0 0:0 0 0] [0 0] 0 0
s 25.771802000 _3_ MAC  --- 0 tcp 10 [0 0 0 0] [energy 99997.316194 ei 0.205 es 0.000 et 1.140 er 1.339] ------- [0:0 0:0 0 0] [0 0] 0 0
s 25.779802000 _1_ MAC  --- 0 tcp 10 [0 0 0 0] [energy 99996.040271 ei 0.199 es 0.000 et 3.321 er 0.439] ------- [0:0 0:0 0 0] [0 0] 0 0
s 25.779802000 _2_ MAC  --- 0 tcp 10 [0 0 0 0] [energy 99997.072523 ei 0.197 es 0.000 et 0.153 er 2.577] ------- [0:0 0:0 0 0] [0 0] 0 0
s 25.779802000 _3_ MAC  --- 0 tcp 10 [0 0 0 0] [energy 99997.303196 ei 0.212 es 0.000 et 1.146 er 1.339] ------- [0:0 0:0 0 0] [0 0] 0 0
N -t 26.000000 -n 0 -e 99997.575851
N -t 26.000000 -n 1 -e 99996.011309
N -t 26.000000 -n 2 -e 99997.049721
N -t 26.000000 -n 3 -e 99997.277676
s 26.971802000 _1_ MAC  --- 0 tcp 500 [0 0 0 0] [energy 99996.011309 ei 0.201 es 0.000 et 3.326 er 0.461] ------- [0:0 0:0 0 0] [0 0] 0 0
N -t 27.000000 -n 0 -e 99997.407933
N -t 27.000000 -n 1 -e 99995.737591
N -t 27.000000 -n 2 -e 99997.039721
N -t 27.000000 -n 3 -e 99997.267676
s 27.489853800 _0_ MAC  --- 0 tcp 30 [0 0 0 0] [energy 99997.407933 ei 0.226 es 0.000 et 0.253 er 2.113] ------- [0:0 0:0 0 0] [0 0] 0 0
s 27.489853800 _1_ MAC  --- 0 tcp 10 [0 0 0 0] [energy 99995.737591 ei 0.211 es 0.000 et 3.590 er 0.461] ------- [0:0 0:0 0 0] [0 0] 0 0
s 27.489853800 _2_ MAC  --- 0 tcp 10 [0 0 0 0] [energy 99996.881307 ei 0.210 es 0.000 et 0.158 er 2.751] ------- [0:0 0:0 0 0] [0 0] 0 0
s 27.489853800 _3_ MAC  --- 0 tcp 10 [0 0 0 0] [energy 99997.108864 ei 0.225 es 0.000 et 1.151 er 1.515] ------- [0:0 0:0 0 0] [0 0] 0 0
s 27.497853800 _1_ MAC  --- 0 tcp 10 [0 0 0 0] [energy 99995.731131 ei 0.212 es 0.000 et 3.596 er 0.461] ------- [0:0 0:0 0 0] [0 0] 0 0
s 27.497853800 _2_ MAC  --- 0 tcp 10 [0 0 0 0] [energy 99996.875542 ei 0.210 es 0.000 et 0.164 er 2.751] ------- [0:0 0:0 0 0] [0 0] 0 0
s 27.497853800 _3_ MAC  --- 0 tcp 10 [0 0 0 0] [energy 99997.103497 ei 0.225 es 0.000 et 1.156 er 1.515] ------- [0:0 0:0 0 0] [0 0] 0 0
N -t 28.000000 -n 0 -e 99997.370851
N -t 28.000000 -n 1 -e 99995.699349
N -t 28.000000 -n 2 -e 99996.849921
N -t 28.000000 -n 3 -e 99997.075158
s 28.689853800 _1_ MAC  --- 0 tcp 500 [0 0 0 0] [energy 99995.699349 ei 0.216 es 0.000 et 3.601 er 0.483] ------- [0:0 0:0 0 0] [0 0] 0 0
N -t 29.000000 -n 0 -e 99997.360851
N -t 29.000000 -n 1 -e 99995.428451
N -t 29.000000 -n 2 -e 99996.684326
N -t 29.000000 -n 3 -e 99997.065158
s 29.207905600 _0_ MAC  --- 0 tcp 30 [0 0 0 0] [energy 99997.360851 ei 0.241 es 0.000 et 0.269 er 2.128] ------- [0:0 0:0 0 0] [0 0] 0 0
s 29.207905600 _1_ MAC  --- 0 tcp 10 [0 0 0 0] [energy 99995.428451 ei 0.223 es 0.000 et 3.865 er 0.483] ------- [0:0 0:0 0 0] [0 0] 0 0
s 29.207905600 _2_ MAC  --- 0 tcp 10 [0 0 0 0] [energy 99996.684326 ei 0.222 es 0.000 et 0.169 er 2.925] ------- [0:0 0:0 0 0] [0 0] 0 0
s 29.207905600 _3_ MAC  --- 0 tcp 10 [0 0 0 0] [energy 99997.065158 ei 0.240 es 0.000 et 1.162 er 1.534] ------- [0:0 0:0 0 0] [0 0] 0 0
s 29.215905600 _1_ MAC  --- 0 tcp 10 [0 0 0 0] [energy 99995.421990 ei 0.224 es 0.000 et 3.870 er 0.483] ------- [0:0 0:0 0 0] [0 0] 0 0
s 29.215905600 _2_ MAC  --- 0 tcp 10 [0 0 0 0] [energy 99996.678562 ei 0.223 es 0.000 et 0.174 er 2.925] ------- [0:0 0:0 0 0] [0 0] 0 0
s 29.215905600 _3_ MAC  --- 0 tcp 10 [0 0 0 0] [energy 99997.057799 ei 0.242 es 0.000 et 1.167 er 1.534] ------- [0:0 0:0 0 0] [0 0] 0 0
N -t 30.000000 -n 0 -e 99997.319851
N -t 30.000000 -n 1 -e 99995.387389
N -t 30.000000 -n 2 -e 99996.650121
N -t 30.000000 -n 3 -e 99997.026639
s 30.407905600 _1_ MAC  --- 0 tcp 500 [0 0 0 0] [energy 99995.387389 ei 0.231 es 0.000 et 3.876 er 0.506] ------- [0:0 0:0 0 0] [0 0] 0 0
s 30.925957400 _0_ MAC  --- 0 tcp 30 [0 0 0 0] [energy 99997.157572 ei 0.255 es 0.000 et 0.285 er 2.302] ------- [0:0 0:0 0 0] [0 0] 0 0
s 30.925957400 _1_ MAC  --- 0 tcp 10 [0 0 0 0] [energy 99995.119310 ei 0.236 es 0.000 et 4.140 er 0.506] ------- [0:0 0:0 0 0] [0 0] 0 0
s 30.925957400 _2_ MAC  --- 0 tcp 10 [0 0 0 0] [energy 99996.487346 ei 0.235 es 0.000 et 0.180 er 3.098] ------- [0:0 0:0 0 0] [0 0] 0 0
s 30.925957400 _3_ MAC  --- 0 tcp 10 [0 0 0 0] [energy 99996.863467 ei 0.254 es 0.000 et 1.172 er 1.710] ------- [0:0 0:0 0 0] [0 0] 0 0
s 30.933957400 _1_ MAC  --- 0 tcp 10 [0 0 0 0] [energy 99995.112850 ei 0.237 es 0.000 et 4.145 er 0.506] ------- [0:0 0:0 0 0] [0 0] 0 0
s 30.933957400 _2_ MAC  --- 0 tcp 10 [0 0 0 0] [energy 99996.481581 ei 0.235 es 0.000 et 0.185 er 3.098] ------- [0:0 0:0 0 0] [0 0] 0 0
s 30.933957400 _3_ MAC  --- 0 tcp 10 [0 0 0 0] [energy 99996.858100 ei 0.254 es 0.000 et 1.177 er 1.710] ------- [0:0 0:0 0 0] [0 0] 0 0
N -t 31.000000 -n 0 -e 99997.134084
N -t 31.000000 -n 1 -e 99995.094634
N -t 31.000000 -n 2 -e 99996.466315
N -t 31.000000 -n 3 -e 99996.852239
N -t 32.000000 -n 0 -e 99997.114851
N -t 32.000000 -n 1 -e 99995.075429
N -t 32.000000 -n 2 -e 99996.450321
N -t 32.000000 -n 3 -e 99996.824121
s 32.125957400 _1_ MAC  --- 0 tcp 500 [0 0 0 0] [energy 99995.075429 ei 0.247 es 0.000 et 4.150 er 0.528] ------- [0:0 0:0 0 0] [0 0] 0 0
s 32.644009200 _0_ MAC  --- 0 tcp 30 [0 0 0 0] [energy 99997.111555 ei 0.269 es 0.000 et 0.301 er 2.318] ------- [0:0 0:0 0 0] [0 0] 0 0
s 32.644009200 _1_ MAC  --- 0 tcp 10 [0 0 0 0] [energy 99994.810170 ei 0.248 es 0.000 et 4.414 er 0.528] ------- [0:0 0:0 0 0] [0 0] 0 0
s 32.644009200 _2_ MAC  --- 0 tcp 10 [0 0 0 0] [energy 99996.290365 ei 0.247 es 0.000 et 0.190 er 3.272] ------- [0:0 0:0 0 0] [0 0] 0 0
s 32.644009200 _3_ MAC  --- 0 tcp 10 [0 0 0 0] [energy 99996.824121 ei 0.264 es 0.000 et 1.183 er 1.729] ------- [0:0 0:0 0 0] [0 0] 0 0
s 32.652009200 _1_ MAC  --- 0 tcp 10 [0 0 0 0] [energy 99994.803709 ei 0.249 es 0.000 et 4.419 er 0.528] ------- [0:0 0:0 0 0] [0 0] 0 0
s 32.652009200 _2_ MAC  --- 0 tcp 10 [0 0 0 0] [energy 99996.284601 ei 0.248 es 0.000 et 0.195 er 3.272] ------- [0:0 0:0 0 0] [0 0] 0 0
s 32.652009200 _3_ MAC  --- 0 tcp 10 [0 0 0 0] [energy 99996.812401 ei 0.271 es 0.000 et 1.188 er 1.729] ------- [0:0 0:0 0 0] [0 0] 0 0
N -t 33.000000 -n 0 -e 99997.073851
N -t 33.000000 -n 1 -e 99994.773469
N -t 33.000000 -n 2 -e 99996.260521
N -t 33.000000 -n 3 -e 99996.785603
s 33.844009200 _1_ MAC  --- 0 tcp 500 [0 0 0 0] [energy 99994.773469 ei 0.252 es 0.000 et 4.425 er 0.550] ------- [0:0 0:0 0 0] [0 0] 0 0
N -t 34.000000 -n 0 -e 99996.907211
N -t 34.000000 -n 1 -e 99994.501029
N -t 34.000000 -n 2 -e 99996.093385
N -t 34.000000 -n 3 -e 99996.618069
s 34.362061000 _0_ MAC  --- 0 tcp 30 [0 0 0 0] [energy 99996.907211 ei 0.284 es 0.000 et 0.317 er 2.492] ------- [0:0 0:0 0 0] [0 0] 0 0
s 34.362061000 _1_ MAC  --- 0 tcp 10 [0 0 0 0] [energy 99994.501029 ei 0.260 es 0.000 et 4.689 er 0.550] ------- [0:0 0:0 0 0] [0 0] 0 0
s 34.362061000 _2_ MAC  --- 0 tcp 10 [0 0 0 0] [energy 99996.093385 ei 0.260 es 0.000 et 0.201 er 3.446] ------- [0:0 0:0 0 0] [0 0] 0 0
s 34.362061000 _3_ MAC  --- 0 tcp 10 [0 0 0 0] [energy 99996.618069 ei 0.283 es 0.000 et 1.193 er 1.905] ------- [0:0 0:0 0 0] [0 0] 0 0
s 34.370061000 _1_ MAC  --- 0 tcp 10 [0 0 0 0] [energy 99994.494569 ei 0.262 es 0.000 et 4.694 er 0.550] ------- [0:0 0:0 0 0] [0 0] 0 0
s 34.370061000 _2_ MAC  --- 0 tcp 10 [0 0 0 0] [energy 99996.087620 ei 0.260 es 0.000 et 0.206 er 3.446] ------- [0:0 0:0 0 0] [0 0] 0 0
s 34.370061000 _3_ MAC  --- 0 tcp 10 [0 0 0 0] [energy 99996.612702 ei 0.283 es 0.000 et 1.199 er 1.905] ------- [0:0 0:0 0 0] [0 0] 0 0
N -t 35.000000 -n 0 -e 99996.868851
N -t 35.000000 -n 1 -e 99994.461509
N -t 35.000000 -n 2 -e 99996.060721
N -t 35.000000 -n 3 -e 99996.583084
s 35.562061000 _1_ MAC  --- 0 tcp 500 [0 0 0 0] [energy 99994.461509 ei 0.267 es 0.000 et 4.699 er 0.572] ------- [0:0 0:0 0 0] [0 0] 0 0
N -t 36.000000 -n 0 -e 99996.858851
N -t 36.000000 -n 1 -e 99994.191509
N -t 36.000000 -n 2 -e 99995.896404
N -t 36.000000 -n 3 -e 99996.573084
s 36.080112800 _0_ MAC  --- 0 tcp 30 [0 0 0 0] [energy 99996.858851 ei 0.301 es 0.000 et 0.333 er 2.508] ------- [0:0 0:0 0 0] [0 0] 0 0
s 36.080112800 _1_ MAC  --- 0 tcp 10 [0 0 0 0] [energy 99994.191509 ei 0.273 es 0.000 et 4.963 er 0.572] ------- [0:0 0:0 0 0] [0 0] 0 0
s 36.080112800 _2_ MAC  --- 0 tcp 10 [0 0 0 0] [energy 99995.896404 ei 0.273 es 0.000 et 0.211 er 3.620] ------- [0:0 0:0 0 0] [0 0] 0 0
s 36.080112800 _3_ MAC  --- 0 tcp 10 [0 0 0 0] [energy 99996.573084 ei 0.299 es 0.000 et 1.204 er 1.924] ------- [0:0 0:0 0 0] [0 0] 0 0
s 36.088112800 _1_ MAC  --- 0 tcp 10 [0 0 0 0] [energy 99994.185428 ei 0.274 es 0.000 et 4.968 er 0.572] ------- [0:0 0:0 0 0] [0 0] 0 0
s 36.088112800 _2_ MAC  --- 0 tcp 10 [0 0 0 0] [energy 99995.890640 ei 0.273 es 0.000 et 0.216 er 3.620] ------- [0:0 0:0 0 0] [0 0] 0 0
s 36.088112800 _3_ MAC  --- 0 tcp 10 [0 0 0 0] [energy 99996.567003 ei 0.300 es 0.000 et 1.209 er 1.924] ------- [0:0 0:0 0 0] [0 0] 0 0
N -t 37.000000 -n 0 -e 99996.817851
N -t 37.000000 -n 1 -e 99994.149549
N -t 37.000000 -n 2 -e 99995.860921
N -t 37.000000 -n 3 -e 99996.534566
s 37.280112800 _1_ MAC  --- 0 tcp 500 [0 0 0 0] [energy 99994.149549 ei 0.283 es 0.000 et 4.974 er 0.594] ------- [0:0 0:0 0 0] [0 0] 0 0
s 37.798164600 _0_ MAC  --- 0 tcp 30 [0 0 0 0] [energy 99996.656850 ei 0.313 es 0.000 et 0.348 er 2.681] ------- [0:0 0:0 0 0] [0 0] 0 0
s 37.798164600 _1_ MAC  --- 0 tcp 10 [0 0 0 0] [energy 99993.882748 ei 0.285 es 0.000 et 5.238 er 0.594] ------- [0:0 0:0 0 0] [0 0] 0 0
s 37.798164600 _2_ MAC  --- 0 tcp 10 [0 0 0 0] [energy 99995.699424 ei 0.285 es 0.000 et 0.222 er 3.794] ------- [0:0 0:0 0 0] [0 0] 0 0
s 37.798164600 _3_ MAC  --- 0 tcp 10 [0 0 0 0] [energy 99996.372671 ei 0.312 es 0.000 et 1.214 er 2.101] ------- [0:0 0:0 0 0] [0 0] 0 0
s 37.806164600 _1_ MAC  --- 0 tcp 10 [0 0 0 0] [energy 99993.876288 ei 0.287 es 0.000 et 5.243 er 0.594] ------- [0:0 0:0 0 0] [0 0] 0 0
s 37.806164600 _2_ MAC  --- 0 tcp 10 [0 0 0 0] [energy 99995.693659 ei 0.286 es 0.000 et 0.227 er 3.794] ------- [0:0 0:0 0 0] [0 0] 0 0
s 37.806164600 _3_ MAC  --- 0 tcp 10 [0 0 0 0] [energy 99996.367304 ei 0.312 es 0.000 et 1.220 er 2.101] ------- [0:0 0:0 0 0] [0 0] 0 0
N -t 38.000000 -n 0 -e 99996.622851
N -t 38.000000 -n 1 -e 99993.847589
N -t 38.000000 -n 2 -e 99995.671121
N -t 38.000000 -n 3 -e 99996.342048
s 38.998164600 _1_ MAC  --- 0 tcp 500 [0 0 0 0] [energy 99993.847589 ei 0.288 es 0.000 et 5.248 er 0.616] ------- [0:0 0:0 0 0] [0 0] 0 0
N -t 39.000000 -n 0 -e 99996.612851
N -t 39.000000 -n 1 -e 99993.573608
N -t 39.000000 -n 2 -e 99995.661121
N -t 39.000000 -n 3 -e 99996.332048
s 39.516216400 _0_ MAC  --- 0 tcp 30 [0 0 0 0] [energy 99996.610833 ei 0.328 es 0.000 et 0.364 er 2.697] ------- [0:0 0:0 0 0] [0 0] 0 0
s 39.516216400 _1_ MAC  --- 0 tcp 10 [0 0 0 0] [energy 99993.573608 ei 0.298 es 0.000 et 5.512 er 0.616] ------- [0:0 0:0 0 0] [0 0] 0 0
s 39.516216400 _2_ MAC  --- 0 tcp 10 [0 0 0 0] [energy 99995.502443 ei 0.298 es 0.000 et 0.232 er 3.967] ------- [0:0 0:0 0 0] [0 0] 0 0
s 39.516216400 _3_ MAC  --- 0 tcp 10 [0 0 0 0] [energy 99996.332048 ei 0.324 es 0.000 et 1.225 er 2.119] ------- [0:0 0:0 0 0] [0 0] 0 0
s 39.524216400 _1_ MAC  --- 0 tcp 10 [0 0 0 0] [energy 99993.567147 ei 0.299 es 0.000 et 5.518 er 0.616] ------- [0:0 0:0 0 0] [0 0] 0 0
s 39.524216400 _2_ MAC  --- 0 tcp 10 [0 0 0 0] [energy 99995.496679 ei 0.298 es 0.000 et 0.238 er 3.967] ------- [0:0 0:0 0 0] [0 0] 0 0
s 39.524216400 _3_ MAC  --- 0 tcp 10 [0 0 0 0] [energy 99996.321606 ei 0.329 es 0.000 et 1.230 er 2.119] ------- [0:0 0:0 0 0] [0 0] 0 0
N -t 40.000000 -n 0 -e 99996.571851
N -t 40.000000 -n 1 -e 99993.535629
N -t 40.000000 -n 2 -e 99995.471321
N -t 40.000000 -n 3 -e 99996.293529
s 40.716216400 _1_ MAC  --- 0 tcp 500 [0 0 0 0] [energy 99993.535629 ei 0.303 es 0.000 et 5.523 er 0.638] ------- [0:0 0:0 0 0] [0 0] 0 0
N -t 41.000000 -n 0 -e 99996.406488
N -t 41.000000 -n 1 -e 99993.264467